ITEM: TIMESTEP
50000
ITEM: NUMBER OF ATOMS
12482
ITEM: BOX BOUNDS pp pp pp
-7.1438497124832168e-01 2.5073753497124841e+02
-7.1438497124832168e-01 2.5073753497124841e+02
-9.0428477373205585e-03 3.1738928477373296e+00
ITEM: ATOMS id type mass x y z vx vy vz 
2 1 183.84 0.81577 0.908785 1.65384 3.0395 -2.24883 -2.2723 
4 1 183.84 0.769951 4.04627 1.797 -2.40013 -0.887141 -1.64526 
6 1 183.84 4.07852 0.956043 1.76226 -4.18418 3.08486 1.10295 
7 1 183.84 2.42695 2.5744 3.07718 2.99464 -0.234951 -0.578128 
8 1 183.84 3.99817 4.01707 1.50462 0.825825 1.84083 -2.05867 
3 1 183.84 -0.679879 2.47432 0.051214 -0.969592 -0.204207 -2.12039 
5 1 183.84 2.45885 -0.641205 0.116723 2.75581 1.87687 0.805173 
10 1 183.84 7.37183 0.871887 1.57347 0.0937183 1.21526 1.28647 
11 1 183.84 5.70898 2.42016 0.109903 3.10445 5.60157 0.364328 
12 1 183.84 7.1983 4.01085 1.73533 -0.0301073 0.963547 0.145333 
14 1 183.84 8.80981 2.40425 0.114495 -0.918853 -0.956325 0.478154 
13 1 183.84 8.71962 -0.706075 3.17341 -4.62056 -2.17805 0.579405 
15 1 183.84 10.452 0.799459 1.82504 0.0120815 -1.55957 -0.882935 
16 1 183.84 10.5272 3.88857 1.76782 -1.16796 1.23523 2.11274 
18 1 183.84 13.7626 0.685599 1.75403 1.5833 -3.02113 -1.96783 
19 1 183.84 12.1544 2.22147 0.22124 -0.482859 2.60917 1.81523 
20 1 183.84 13.6732 3.91809 1.68331 0.244947 -2.71701 -0.410088 
23 1 183.84 15.1525 2.4404 0.0288689 1.0994 -0.0411485 0.625269 
22 1 183.84 16.8479 0.715978 1.6515 0.549948 -1.98412 -0.704446 
24 1 183.84 16.7796 3.98857 1.51286 0.940173 3.88591 -0.880498 
26 1 183.84 18.228 2.55588 0.0397757 -3.3254 2.53739 -1.88659 
27 1 183.84 19.9097 0.908056 1.65026 -2.04783 -2.8135 2.9883 
28 1 183.84 20.0652 4.08269 1.59876 0.940518 4.06347 -4.55147 
30 1 183.84 23.1953 0.746274 1.59192 1.48698 0.924436 -3.42872 
31 1 183.84 21.5667 2.33372 3.13407 3.69386 -4.40234 -0.577989 
32 1 183.84 23.1394 4.1123 1.65703 -0.476135 2.00693 0.625101 
35 1 183.84 24.7636 2.39267 0.0453936 0.407455 0.511998 -1.24928 
34 1 183.84 26.2239 0.688175 1.64303 -4.81238 -1.02336 3.18377 
36 1 183.84 26.2996 4.03917 1.7244 -4.05252 1.03467 0.153377 
38 1 183.84 27.847 2.46708 0.0548894 2.15453 -0.921934 -0.82946 
39 1 183.84 29.433 0.875783 1.51578 0.0631619 1.96878 0.970289 
40 1 183.84 29.256 4.22291 1.51778 1.89414 -4.2126 0.635823 
45 1 183.84 34.0345 -0.69314 0.10116 1.13731 -3.63017 -0.6664 
43 1 183.84 31.0919 2.57572 2.98693 -0.560267 -2.30015 -3.66681 
42 1 183.84 32.544 0.936507 1.54944 -1.62709 -1.059 -1.479 
44 1 183.84 32.5371 4.11287 1.54852 1.86134 0.718087 0.487392 
46 1 183.84 34.3071 2.48412 3.12925 -1.4507 2.19826 -1.48572 
47 1 183.84 35.7099 0.799033 1.65515 -2.44696 2.40183 3.36753 
48 1 183.84 35.8104 4.08111 1.58049 -1.43358 -0.933405 -1.52826 
50 1 183.84 38.9543 1.04555 1.71699 -1.1913 -4.26858 -1.83354 
51 1 183.84 37.3703 2.57521 3.14057 -0.141793 -0.285077 -2.93646 
52 1 183.84 39.2003 4.14914 1.7111 -3.64111 0.535248 -1.01519 
55 1 183.84 40.8525 2.60944 0.0137501 -4.54644 0.306316 -0.859402 
53 1 183.84 40.7177 -0.525416 0.0142556 1.17772 -1.12515 1.88741 
49 1 183.84 37.388 -0.584204 0.0613821 4.44495 -0.964035 -0.622396 
317 1 183.84 -0.678274 5.7582 0.217759 0.320346 2.89693 3.71608 
318 1 183.84 0.941699 7.34011 1.81814 -1.11116 0.126555 -1.45532 
320 1 183.84 2.46803 5.75715 0.232501 -2.85818 1.53639 -0.960116 
321 1 183.84 4.05459 7.24305 1.727 1.2153 2.23549 3.85347 
322 1 183.84 2.40052 8.90063 0.294655 0.863954 0.0799376 -0.168763 
323 1 183.84 5.55894 5.63778 0.116399 -3.717 0.0617155 -0.735507 
324 1 183.84 7.28199 7.19882 1.66853 1.69285 -1.51366 1.94162 
325 1 183.84 5.40155 8.86667 0.117106 -2.82218 -2.67915 0.671173 
326 1 183.84 8.87869 5.66672 0.201628 4.08844 1.12008 0.467259 
327 1 183.84 8.95054 8.90644 0.178052 0.611292 -1.91103 0.941118 
328 1 183.84 10.5908 7.22376 1.86218 0.700017 0.786319 -3.1186 
329 1 183.84 12.095 5.41718 0.270343 -0.819389 -1.95076 1.07427 
330 1 183.84 13.5748 7.16401 1.74633 -0.062252 0.0630609 4.28885 
331 1 183.84 12.1455 8.69508 0.0626425 -0.532692 -3.20338 -2.69114 
332 1 183.84 15.1619 5.51753 3.08459 1.33214 -3.70173 1.03602 
334 1 183.84 15.3128 8.74031 0.244161 -0.462733 -2.58954 3.27259 
333 1 183.84 16.8376 6.95053 1.61595 0.238895 -3.03449 -3.61925 
335 1 183.84 18.4925 5.57507 0.102271 0.42607 -2.4718 0.801958 
336 1 183.84 18.1924 8.78179 0.159116 -0.0400253 -2.63765 -1.78709 
337 1 183.84 19.8743 7.24236 1.70311 -4.07736 -1.36993 -1.76482 
338 1 183.84 21.5213 5.6266 0.0943254 -1.08235 3.54141 -3.28816 
339 1 183.84 22.8544 7.19334 1.77058 -2.32412 -0.929116 3.96593 
340 1 183.84 21.3429 8.76904 0.197954 3.50658 0.855231 -1.78384 
341 1 183.84 24.8319 5.56141 -0.000448961 1.98656 -1.0618 -0.374591 
343 1 183.84 24.5676 8.80096 0.101749 1.75563 -0.0439916 2.69312 
342 1 183.84 26.1605 7.32364 1.53651 -1.10517 -0.733756 -0.996445 
344 1 183.84 27.8228 5.87756 3.0164 3.75085 0.218674 1.40701 
345 1 183.84 27.7806 9.00447 0.142063 -3.29181 -1.92731 4.38582 
346 1 183.84 29.4481 7.38306 1.50566 0.0295611 0.340358 1.60127 
347 1 183.84 30.9653 5.80164 3.17146 -0.0600479 -1.42177 1.14831 
348 1 183.84 32.7951 7.24969 1.46998 -0.530334 0.769325 2.61158 
349 1 183.84 31.3178 8.95314 -0.00152876 -3.34492 -3.46854 1.2155 
350 1 183.84 34.3351 5.68589 3.08924 0.441248 1.56986 -0.952015 
351 1 183.84 34.3722 8.86237 3.17016 -1.23815 0.0964673 0.816765 
352 1 183.84 35.9266 7.29164 1.41657 -1.43699 1.68552 -2.16733 
353 1 183.84 37.5769 5.69727 0.0674883 2.79442 0.264241 -1.71168 
354 1 183.84 39.237 7.32148 1.71663 -3.89097 2.39726 2.45419 
355 1 183.84 37.5624 8.81207 3.14992 4.4937 -1.92104 -3.6059 
356 1 183.84 40.7527 5.61539 0.241842 -0.120189 0.631067 -2.18518 
358 1 183.84 40.8836 8.81423 0.147691 -2.4314 0.494449 2.00885 
554 1 183.84 0.685418 10.4598 1.81681 -0.883583 0.904311 -1.48104 
556 1 183.84 0.83568 13.596 1.79182 1.65139 -1.31642 1.68719 
557 1 183.84 3.92741 10.4498 1.80568 -2.97738 -0.480992 -0.558076 
558 1 183.84 2.44596 12.1251 0.295206 2.93543 1.26231 -0.1585 
559 1 183.84 4.11542 13.6372 1.7631 -2.03498 1.4358 -3.92209 
555 1 183.84 -0.652593 11.9054 0.211026 0.255255 2.60968 -1.40881 
560 1 183.84 7.26915 10.31 1.67921 2.06408 4.23676 -1.80761 
561 1 183.84 5.55674 11.9583 0.176982 0.830873 4.08353 2.1979 
562 1 183.84 7.362 13.4438 1.62504 -0.572524 1.55389 -1.36222 
563 1 183.84 8.95175 11.9368 3.1455 -0.815353 2.62332 -0.139142 
797 1 183.84 5.78362 14.9253 3.1569 -0.280822 0.585989 0.797341 
564 1 183.84 10.5209 10.3805 1.65782 -0.1845 -1.14337 -2.13131 
565 1 183.84 10.5266 13.4853 1.55558 1.19438 1.84926 1.54766 
566 1 183.84 13.684 10.4616 1.78389 1.07929 2.90429 3.99467 
567 1 183.84 12.0407 11.8806 0.103122 0.771952 3.26558 1.5962 
568 1 183.84 13.5973 13.6177 1.60688 1.87287 -3.34268 0.0229907 
570 1 183.84 15.2185 12.0613 0.065105 1.05894 -2.52905 0.111154 
569 1 183.84 16.7886 10.4879 1.85647 0.018104 -0.647978 0.0498765 
571 1 183.84 16.849 13.7127 1.61788 -3.35522 0.556004 4.60038 
572 1 183.84 18.546 12.0858 0.00189254 2.87068 1.32229 -0.268062 
573 1 183.84 19.9366 10.381 1.793 -1.9472 -1.48609 -0.929306 
574 1 183.84 19.894 13.7979 1.59188 0.391894 -3.87206 0.823299 
575 1 183.84 23.0516 10.3429 1.83455 -0.703475 -1.33168 2.54714 
576 1 183.84 21.5133 12.058 0.191949 1.95632 2.8785 0.773009 
577 1 183.84 23.0728 13.713 1.79051 4.94567 3.92948 1.24622 
579 1 183.84 24.4965 12.0236 0.161069 2.59999 0.357782 3.83874 
578 1 183.84 26.3318 10.4911 1.61883 -1.70538 -1.9056 0.947787 
580 1 183.84 26.0758 13.5502 1.7663 -3.42556 1.33426 -1.5314 
581 1 183.84 27.9337 12.125 0.0678683 -0.993799 -1.0671 -0.693874 
582 1 183.84 29.4835 10.3665 1.62887 1.83125 0.499071 -0.685326 
583 1 183.84 29.461 13.7425 1.76686 0.135901 -0.191745 2.54643 
584 1 183.84 32.6792 10.4936 1.57169 1.74709 -0.535116 1.49682 
585 1 183.84 30.9461 12.1033 0.179534 -1.37911 0.533561 1.11583 
586 1 183.84 32.6055 13.5411 1.85169 -1.64431 2.97023 -0.669939 
587 1 183.84 34.2517 12.1044 0.234527 1.69265 -0.190296 -0.57826 
588 1 183.84 35.949 10.4569 1.51793 -1.67489 4.06286 -3.02846 
589 1 183.84 35.8732 13.5362 1.64839 -0.661588 -1.17379 0.0154284 
590 1 183.84 39.1594 10.3065 1.63948 1.09749 -0.335122 5.05698 
591 1 183.84 37.5656 11.9966 3.09451 -1.18601 0.683914 -0.763605 
592 1 183.84 38.8441 13.7871 1.60735 -0.102249 3.2393 -1.48433 
594 1 183.84 40.4829 11.9977 0.0187326 -0.020399 -2.75709 2.40142 
791 1 183.84 -0.670784 15.1341 0.0659725 0.596281 -0.101881 -2.11566 
794 1 183.84 2.50739 15.2215 0.313754 0.0598464 -1.32665 0.422571 
792 1 183.84 1.03995 16.7822 1.69922 -0.777136 0.444332 -4.01166 
795 1 183.84 4.25773 16.7883 1.73374 -2.43834 -0.200346 1.2304 
796 1 183.84 2.61084 18.3864 3.1707 1.39801 -0.0845888 0.83988 
793 1 183.84 -0.473033 18.4086 0.0712595 -2.4086 -0.186041 1.89698 
1031 1 183.84 4.15938 19.8604 1.43966 -3.39044 -1.16649 -3.28505 
1028 1 183.84 0.920023 19.8426 1.60797 -1.90805 -3.30817 -1.79979 
800 1 183.84 8.98891 15.1019 3.0924 -1.75587 2.10255 -2.596 
798 1 183.84 7.28846 16.7967 1.55615 -2.23186 -0.108258 -0.94378 
799 1 183.84 5.85159 18.465 3.1036 -1.42199 3.03333 1.46384 
801 1 183.84 8.97516 18.4201 3.07361 2.25496 0.865166 0.900177 
1034 1 183.84 7.27309 20.0383 1.44415 2.54926 1.45674 4.1519 
803 1 183.84 12.0044 15.1833 0.0146962 -2.33621 -1.19747 -1.04316 
802 1 183.84 10.3283 16.7668 1.64559 -3.63457 -3.27287 0.628792 
804 1 183.84 13.5469 16.6976 1.67364 -2.27767 0.556487 -2.2796 
805 1 183.84 12.1857 18.3459 0.0765995 0.214422 0.672935 2.89635 
1040 1 183.84 13.7429 19.8859 1.53081 2.0117 -1.10289 1.83831 
1038 1 183.84 10.5612 19.902 1.45416 2.66616 2.22141 0.282046 
806 1 183.84 15.1698 15.2591 0.117675 -1.38008 -2.47867 -1.72243 
809 1 183.84 18.3198 15.2868 3.00108 0.0292319 1.43157 -0.561707 
808 1 183.84 15.3127 18.557 0.122342 1.804 -1.50288 1.36899 
807 1 183.84 16.802 16.9056 1.649 2.76512 2.52553 1.14148 
810 1 183.84 18.5711 18.6297 3.10903 -2.24533 -1.91949 -0.338382 
811 1 183.84 19.9579 16.863 1.47772 -0.423137 1.67911 1.77763 
1047 1 183.84 20.1945 19.928 1.44925 -2.39083 1.0341 -2.68071 
1043 1 183.84 17.0118 20.0667 1.61865 -0.794251 1.57201 0.584948 
815 1 183.84 24.7594 15.3069 0.13181 3.26217 1.80225 -0.407599 
812 1 183.84 21.5583 15.3306 0.111866 -1.07549 1.64726 1.76108 
813 1 183.84 23.2131 16.866 1.65191 -1.90793 8.50724 2.40781 
814 1 183.84 21.5772 18.4334 3.16041 0.451702 -0.927898 -1.81079 
817 1 183.84 24.9509 18.2043 0.0348062 -0.968688 0.950176 -2.56005 
1049 1 183.84 23.2623 19.8433 1.56635 -0.494922 -2.9161 -0.406367 
818 1 183.84 27.9043 15.188 0.157716 -1.04221 -0.158796 -1.72199 
816 1 183.84 26.4498 16.6702 1.80651 0.1208 0.130743 -0.568879 
819 1 183.84 28.1236 18.2484 0.284928 2.2089 -2.90777 1.93838 
820 1 183.84 29.5679 16.5934 1.72072 -0.155584 -1.92454 1.92509 
1056 1 183.84 29.5454 19.9726 1.67054 1.05296 -0.0373005 -4.93038 
1052 1 183.84 26.3591 19.9491 1.6978 -0.286712 3.35994 -0.73854 
824 1 183.84 34.3477 15.2527 0.0662439 -0.944549 0.475774 -0.891756 
823 1 183.84 31.1451 18.4697 0.124484 -1.12366 -1.41103 -2.04451 
821 1 183.84 31.2262 15.2178 0.0656308 -0.769208 -1.39492 -0.485516 
822 1 183.84 32.6783 16.8375 1.71642 1.54249 0.71986 -3.89897 
825 1 183.84 34.3019 18.2969 3.09906 2.77722 -0.792806 0.273195 
1058 1 183.84 32.7246 19.989 1.66637 -1.33372 6.4881 0.276242 
826 1 183.84 35.8806 16.7472 1.51724 -0.733578 2.63943 -1.37493 
1062 1 183.84 35.8499 20.061 1.53577 2.49902 0.847882 1.39913 
830 1 183.84 40.5659 15.1292 3.03096 0.128847 0.157028 -0.721314 
827 1 183.84 37.3593 15.3231 3.08586 2.50865 -0.598631 0.733615 
828 1 183.84 38.9637 16.8785 1.37174 -0.273877 0.159156 1.46653 
829 1 183.84 37.4019 18.4804 3.07858 -0.00729321 1.24977 0.873763 
832 1 183.84 40.4355 18.3964 3.01272 -0.294878 -1.56022 4.02177 
1064 1 183.84 39.0978 20.0957 1.41854 1.99077 0.915521 -0.600141 
1029 1 183.84 -0.704164 21.4185 3.12187 0.683623 -2.35563 -3.72101 
1030 1 183.84 0.85974 23.041 1.35536 -0.7852 0.695308 2.4297 
1032 1 183.84 2.57865 21.4633 3.1196 0.644247 -1.46608 -0.547283 
1033 1 183.84 3.97295 23.083 1.46796 -0.122647 0.601083 0.615577 
1268 1 183.84 2.48258 24.675 3.1413 -1.61802 2.29352 -4.52455 
1035 1 183.84 5.6128 21.537 2.99734 -2.21821 3.56381 0.236267 
1036 1 183.84 7.25822 22.9946 1.39572 -3.35506 -0.21891 0.0376234 
1037 1 183.84 8.96896 21.5533 3.04918 -2.1028 -2.12748 0.0180636 
1271 1 183.84 5.70765 24.6056 3.125 3.05135 0.131093 1.05963 
1274 1 183.84 8.96729 24.7756 3.05753 1.9103 -5.37829 3.3703 
1039 1 183.84 10.6069 23.085 1.53105 -1.90362 -2.68435 1.75427 
1041 1 183.84 12.1447 21.5421 3.06811 -1.83941 0.211352 0.493437 
1042 1 183.84 13.6936 23.2804 1.45399 -2.60323 -2.09945 1.03811 
1277 1 183.84 12.0285 24.789 3.03239 -0.100531 -0.191871 -1.26918 
1044 1 183.84 15.2841 21.6571 0.0517678 3.72659 1.77085 -0.0978241 
1280 1 183.84 15.3511 24.6937 3.14813 -0.543833 -3.5717 -2.00481 
1045 1 183.84 16.9043 23.1927 1.36714 1.41488 -0.597532 2.55151 
1046 1 183.84 18.6031 21.6821 3.12355 -0.413161 -0.473846 3.23646 
1048 1 183.84 20.0747 23.151 1.55663 -0.501989 1.00631 1.2127 
1283 1 183.84 18.6075 24.8559 0.0103215 0.544773 -0.263456 0.674683 
1050 1 183.84 21.9245 21.4664 0.0200021 0.684805 2.47351 -1.04817 
1051 1 183.84 23.3102 23.2446 1.53595 1.69327 -0.681188 -1.29792 
1053 1 183.84 24.7817 21.5158 3.12245 1.63631 -3.41906 -1.08694 
1286 1 183.84 21.7065 24.7627 3.09143 -0.255545 -0.247806 -0.362925 
1289 1 183.84 24.8948 24.8955 0.080451 -2.09397 0.441316 1.33442 
1054 1 183.84 26.3474 23.1136 1.56388 3.41225 0.759782 0.191398 
1055 1 183.84 27.8625 21.4508 3.14534 1.48815 -2.59791 -0.344054 
1057 1 183.84 29.4272 23.1023 1.59469 0.0682676 0.227847 -0.362536 
1292 1 183.84 28.0172 24.655 0.0337376 -1.51669 5.39554 -1.83203 
1059 1 183.84 31.0053 21.5794 0.0585661 0.722736 -0.274083 -0.315636 
1060 1 183.84 32.7233 23.2288 1.43614 0.797037 0.535095 -1.51508 
1061 1 183.84 34.3031 21.5378 0.110132 -0.791182 1.38009 0.199234 
1295 1 183.84 31.1046 24.7076 0.00892893 -4.19975 4.90215 -0.912259 
1298 1 183.84 34.2419 24.8599 3.16974 3.14988 -3.44868 -2.1778 
1063 1 183.84 35.8731 23.3761 1.60009 -2.92844 -0.546301 -3.19324 
1065 1 183.84 37.4934 21.5712 -0.00169421 0.0487861 2.45974 -0.285535 
1066 1 183.84 38.9532 23.3056 1.76172 1.6006 0.575895 -0.311575 
1068 1 183.84 40.5101 21.7157 3.11946 1.06768 -0.358329 -0.418924 
1301 1 183.84 37.5358 24.8709 0.102708 -1.32277 0.732614 1.06628 
1304 1 183.84 40.4896 24.9269 0.00723775 -2.29356 4.05526 -0.528355 
1266 1 183.84 0.858325 26.3039 1.67921 -3.31692 3.53054 -2.76943 
1269 1 183.84 4.07859 26.2789 1.6073 1.18035 -1.63318 -0.157891 
1270 1 183.84 2.32055 27.9032 0.0244003 -4.02045 0.33914 3.677 
1502 1 183.84 0.991297 29.4638 1.70087 1.6825 1.84834 2.78183 
1506 1 183.84 3.95076 29.3692 1.53734 1.05995 1.1192 1.73399 
1272 1 183.84 7.21578 26.144 1.54593 0.7825 0.801447 0.649978 
1273 1 183.84 5.5727 28.0307 3.04417 -2.64948 0.977989 -4.64753 
1275 1 183.84 8.82508 27.9428 3.1081 -1.81037 1.5203 -1.31373 
1510 1 183.84 7.16138 29.3294 1.62238 0.527794 0.512886 -0.94066 
1276 1 183.84 10.4554 26.2906 1.51342 -1.16481 -1.62837 1.26494 
1278 1 183.84 13.6172 26.1695 1.62921 -3.64928 1.83975 -5.09992 
1279 1 183.84 12.1591 27.8639 3.1364 -0.759182 -2.09426 -0.99281 
1516 1 183.84 10.5151 29.4078 1.47566 0.607864 -1.8825 -1.2775 
1518 1 183.84 13.7086 29.4729 1.56134 -1.52294 -1.18917 -2.56718 
1282 1 183.84 15.1923 27.8984 0.116941 -1.66745 0.675435 4.11297 
1281 1 183.84 16.8894 26.3366 1.54842 0.181116 -0.347552 3.323 
1284 1 183.84 18.3514 27.9091 0.0784356 0.884652 -3.32511 1.76973 
1522 1 183.84 16.8232 29.4102 1.50087 1.16831 1.97762 -1.4207 
1528 1 183.84 20.0339 29.5054 1.67505 -2.87258 -1.37232 -0.416157 
1285 1 183.84 20.2685 26.3742 1.67073 2.61221 -0.452547 1.70062 
1287 1 183.84 23.2369 26.399 1.70574 3.09194 2.73903 -5.94171 
1288 1 183.84 21.5697 28.0404 0.100639 2.63 -1.36122 -1.56441 
1291 1 183.84 24.8229 28.0718 0.0937733 -1.98208 -2.69757 -0.326722 
1530 1 183.84 23.1493 29.5486 1.54553 1.93112 1.28689 -0.315738 
1290 1 183.84 26.4028 26.5372 1.51963 -1.59581 1.18732 3.12611 
1293 1 183.84 27.968 28.0279 0.0125455 -2.04499 -0.489847 -0.770128 
1294 1 183.84 29.4614 26.448 1.54164 2.60701 -0.420144 2.2909 
1534 1 183.84 26.361 29.7041 1.69007 -0.438694 3.0047 -0.415471 
1540 1 183.84 29.4138 29.5866 1.66943 -2.31947 1.62536 0.911127 
1296 1 183.84 32.5887 26.3164 1.62252 3.60532 0.188506 -1.34803 
1297 1 183.84 31.233 27.9906 3.09142 5.07473 -0.448191 0.446355 
1299 1 183.84 34.2328 28.0075 0.104665 -3.48201 -1.62718 -0.372208 
1542 1 183.84 32.8581 29.58 1.66456 2.11947 -1.29816 -0.277152 
1548 1 183.84 35.9486 29.5992 1.7567 -2.75107 3.13051 -1.75131 
1300 1 183.84 35.9968 26.4959 1.72511 1.72471 -1.24063 -1.81004 
1302 1 183.84 39.0467 26.6853 1.83162 -0.238306 0.242341 -0.181176 
1303 1 183.84 37.4285 28.1395 0.144258 1.71157 -0.38615 -1.88524 
1306 1 183.84 40.6848 28.2073 0.278122 1.57585 -3.51188 -1.42485 
1550 1 183.84 38.9408 29.782 1.82336 -2.59819 2.86627 0.0951761 
1507 1 183.84 2.34299 31.1235 -0.00441646 1.24585 0.943099 1.86316 
1504 1 183.84 0.820856 32.6982 1.59949 -1.8404 1.32521 1.1042 
1508 1 183.84 3.94705 32.608 1.52306 0.903229 5.63434 -1.5157 
1509 1 183.84 2.3334 34.288 0.0535948 -0.168539 -2.72244 -1.56484 
1818 1 183.84 0.873954 35.8896 1.55885 0.205151 0.570127 -0.179329 
1821 1 183.84 4.08386 35.8261 1.67674 0.0189227 -1.24479 2.24954 
1511 1 183.84 5.65945 31.2213 3.09327 -1.59389 -1.83601 -0.617346 
1512 1 183.84 7.20691 32.6393 1.60529 -2.086 0.0153497 -3.04873 
1513 1 183.84 5.57365 34.1874 0.0695894 -0.645828 -2.60866 1.49814 
1514 1 183.84 8.76588 30.9473 0.0987673 0.886275 -0.0626994 -2.00128 
1515 1 183.84 8.69576 34.1633 3.14448 -1.32772 0.747026 1.32922 
1824 1 183.84 7.25979 35.8635 1.53067 0.374672 0.319073 0.158247 
1519 1 183.84 12.0243 30.9652 3.17145 -2.40811 1.087 -0.755759 
1517 1 183.84 10.2811 32.5507 1.80525 0.0657938 0.526347 2.41166 
1520 1 183.84 13.438 32.4196 1.49846 3.9613 1.46302 -3.97274 
1521 1 183.84 11.8185 34.0591 3.07269 0.769607 -0.623291 -5.15828 
1828 1 183.84 10.327 35.7127 1.65591 -3.84818 0.581434 -2.34944 
1830 1 183.84 13.4334 35.5278 1.56975 -0.546104 -0.507352 2.39333 
1525 1 183.84 15.0584 34.0679 0.00433747 -4.51928 0.676315 2.61125 
1523 1 183.84 15.2656 31.075 3.10977 0.75727 0.797131 -3.11084 
1524 1 183.84 16.84 32.6648 1.65971 -2.13778 0.838824 -2.32182 
1526 1 183.84 18.4434 30.883 3.13585 -1.96797 -0.0455469 -2.26675 
1527 1 183.84 18.3592 34.2392 0.204869 0.566875 -0.338782 2.85608 
1529 1 183.84 20.0193 32.6914 1.59629 -1.69424 3.18046 1.69205 
1833 1 183.84 16.809 35.7233 1.68426 3.48649 -1.99974 -3.36758 
1837 1 183.84 19.8734 35.8887 1.65372 0.304686 -1.65141 -0.847794 
1531 1 183.84 21.5923 31.1209 0.0312266 -0.377045 3.8809 2.22517 
1532 1 183.84 23.1335 32.8308 1.49496 -2.2898 -4.1603 -1.16886 
1533 1 183.84 21.444 34.4765 0.181106 -0.132775 -1.38665 -1.44264 
1535 1 183.84 24.7539 31.3143 0.0821469 -2.69805 3.29573 -0.563575 
1537 1 183.84 24.6177 34.3814 0.0656771 3.25265 2.48179 -1.14217 
1536 1 183.84 26.318 32.8426 1.55763 0.122006 -3.49239 0.645701 
1538 1 183.84 27.9075 31.2099 0.144493 -1.79616 -1.86042 0.86326 
1539 1 183.84 28.0045 34.4553 3.06702 0.636097 1.79914 -3.99767 
1541 1 183.84 29.799 32.6848 1.69854 2.64007 1.02756 0.554616 
1842 1 183.84 26.1946 35.9484 1.6016 -1.88978 -0.58786 -0.517412 
1543 1 183.84 31.2366 31.0704 0.108082 -3.65881 0.491729 1.8137 
1544 1 183.84 32.6942 32.8008 1.55103 1.52362 -1.51636 2.33607 
1545 1 183.84 31.0398 34.4127 0.00293423 -0.16434 0.489412 3.15213 
1546 1 183.84 34.3956 31.1387 0.0782692 -1.77744 1.35727 2.39321 
1547 1 183.84 34.2333 34.5175 0.122612 0.0654487 2.41358 3.79752 
1549 1 183.84 35.748 32.8998 1.74185 0.89631 0.679427 -0.299856 
1551 1 183.84 37.5772 31.2844 0.163683 -1.86746 0.190272 0.756971 
1552 1 183.84 38.9451 32.8194 1.6537 -0.907686 1.42835 1.36469 
1553 1 183.84 37.409 34.406 0.248376 3.0062 1.20034 -2.35152 
1555 1 183.84 40.6044 31.1878 0.103922 0.975716 2.04409 -1.784 
1557 1 183.84 40.5817 34.3502 0.0491859 1.63996 1.37434 -0.123962 
1820 1 183.84 0.82211 39.0666 1.60819 -0.489939 0.373111 -4.86914 
1822 1 183.84 2.37259 37.4857 3.1608 -4.09251 -0.35523 -0.240093 
1823 1 183.84 4.14362 39.0328 1.64598 -0.0962013 -1.43453 0.986748 
2058 1 183.84 2.32389 40.6456 0.178826 2.37703 -0.485761 -0.691811 
1825 1 183.84 5.62591 37.3953 -0.0016487 -5.07832 -3.9233 3.27087 
1826 1 183.84 7.34552 39.0036 1.58408 4.73078 2.47084 0.883453 
1827 1 183.84 8.87444 37.3034 0.025083 0.0201957 1.59177 -0.0600998 
2061 1 183.84 5.64264 40.599 0.11241 -1.14678 5.19946 -0.440581 
2064 1 183.84 8.96849 40.6256 0.037314 0.621689 -5.53933 -1.14893 
1829 1 183.84 10.6216 38.984 1.47496 -1.93655 1.90686 1.27871 
1831 1 183.84 11.9795 37.3161 2.96651 3.92554 -1.11202 0.920643 
1832 1 183.84 13.4739 38.8781 1.51512 -1.02057 -0.911232 -2.53377 
2067 1 183.84 12.033 40.6067 3.14334 1.85926 0.634214 2.28092 
1834 1 183.84 15.0968 37.2385 3.06445 -1.77654 -0.409402 0.420634 
2070 1 183.84 15.0577 40.6582 3.05344 1.5998 2.32515 -2.22948 
1835 1 183.84 16.4321 38.9176 1.63542 -0.862727 0.42245 2.67835 
1836 1 183.84 18.1951 37.4264 0.0739375 -1.42837 -2.10777 2.66654 
1838 1 183.84 19.6644 39.0328 1.79503 -0.302062 1.09819 -0.587629 
2073 1 183.84 18.153 40.5803 0.0815725 -3.58314 1.7609 4.44882 
1839 1 183.84 23.008 35.9747 1.68894 1.59857 -2.2889 0.639042 
2079 1 183.84 24.5469 40.6088 0.0876085 -4.57043 -2.40059 3.34867 
1840 1 183.84 21.3616 37.4405 -0.00709527 -1.12325 -2.86199 1.84924 
1841 1 183.84 23.0511 39.0346 1.59352 2.59967 -0.696023 -2.67623 
1843 1 183.84 24.667 37.4627 0.0673267 -4.71134 0.0879059 -1.57492 
2076 1 183.84 21.1342 40.7545 0.0675127 -0.712154 3.0416 -1.44314 
1846 1 183.84 29.4664 36.127 1.64414 1.25163 0.59705 -1.63212 
2082 1 183.84 27.8554 40.79 3.17249 -2.07305 -0.173371 -3.88496 
1844 1 183.84 26.1662 39.1795 1.81577 -1.91552 2.37867 1.24217 
1847 1 183.84 29.4203 39.1471 1.70083 -0.476969 1.72337 -1.41732 
1845 1 183.84 27.8128 37.6119 0.132898 0.298676 1.74858 0.135642 
1850 1 183.84 32.7021 39.3167 1.6615 -3.10917 3.90202 -3.34772 
1851 1 183.84 34.3697 37.7094 0.287606 4.77383 -0.931475 2.52246 
2085 1 183.84 31.2309 40.8523 3.17271 0.788425 6.22101 -2.2 
1848 1 183.84 32.6892 36.1747 1.7908 -1.27888 -4.35809 0.189478 
1849 1 183.84 31.0693 37.8228 0.0790432 -0.519936 0.914989 1.5089 
2088 1 183.84 34.3245 40.8155 0.0326125 3.6781 0.829274 -0.351401 
1852 1 183.84 35.8577 36.0582 1.87865 -3.67438 0.671189 -0.413068 
1858 1 183.84 40.5447 37.502 0.0253859 -2.30964 2.15323 2.01012 
2091 1 183.84 37.514 40.876 0.00493367 -3.27152 1.55456 -2.00249 
2094 1 183.84 40.5884 40.7173 0.261352 -0.478682 -1.16073 1.74818 
1854 1 183.84 39.0117 36.0018 1.747 -0.107606 2.9603 2.2515 
1856 1 183.84 38.9721 39.2273 1.76399 0.977355 4.77477 -0.748639 
1855 1 183.84 37.4152 37.5062 0.199479 1.06481 0.259811 1.35611 
1853 1 183.84 36.0627 39.3433 1.65607 2.7985 -4.42923 1.53485 
2056 1 183.84 0.569578 42.1932 1.53366 -3.87476 -1.15501 1.02724 
2059 1 183.84 3.93764 42.2153 1.46912 1.23593 -3.47335 -0.0179404 
2060 1 183.84 2.15216 43.7009 0.0277057 1.28344 -0.428025 1.0555 
2292 1 183.84 0.603122 45.1024 1.63785 -2.14998 -0.33631 1.60669 
2295 1 183.84 3.89259 45.3903 1.5025 0.448546 1.88532 2.58505 
2062 1 183.84 7.24019 42.2582 1.45119 1.36929 -2.36519 2.84467 
2063 1 183.84 5.48476 43.6879 3.08944 1.31179 1.35819 -3.51041 
2065 1 183.84 8.73084 43.7614 3.13239 -1.72097 1.49443 0.193671 
2298 1 183.84 7.20651 45.304 1.5433 -0.400949 -1.51503 2.22303 
2066 1 183.84 10.4356 42.123 1.44904 -1.06436 0.0882442 3.50623 
2068 1 183.84 13.6563 42.3024 1.49068 1.63139 1.93247 -1.07753 
2069 1 183.84 12.0348 43.7191 3.13727 0.316622 -0.985852 2.15223 
2302 1 183.84 10.5744 45.2843 1.46829 1.80817 -0.658133 1.15724 
2304 1 183.84 13.7261 45.4839 1.30883 -3.25402 -1.49786 -3.94475 
2072 1 183.84 15.1388 43.7974 0.0714909 -0.114598 2.39396 -1.09635 
2071 1 183.84 16.7655 42.1712 1.52973 0.481278 -1.04885 -4.60208 
2074 1 183.84 18.2809 43.9238 0.104283 0.2268 1.49144 0.935037 
2075 1 183.84 19.7926 42.4154 1.52698 -2.10136 -0.674072 1.37024 
2307 1 183.84 16.7718 45.4365 1.58678 -0.54515 -0.896901 0.852994 
2311 1 183.84 19.991 45.4752 1.60465 1.05069 2.39826 3.86603 
2077 1 183.84 23.0101 42.1804 1.51325 -3.13605 1.54359 0.893591 
2078 1 183.84 21.4449 43.9175 3.01167 1.74682 1.40564 -3.55155 
2081 1 183.84 24.5906 43.7399 3.09472 -1.82984 -0.46878 -2.1182 
2313 1 183.84 23.1036 45.3162 1.44812 4.23689 2.5207 -1.80171 
2080 1 183.84 26.1709 42.1309 1.60098 -1.29028 0.717883 -0.438981 
2083 1 183.84 27.6832 43.8148 0.104003 -1.75174 -0.206389 1.94347 
2084 1 183.84 29.5724 42.3187 1.5357 -0.371581 -2.8063 4.51549 
2316 1 183.84 26.1467 45.3682 1.45468 0.376054 0.789127 0.672581 
2320 1 183.84 29.4659 45.4553 1.61558 1.92263 -2.7206 -0.124842 
2086 1 183.84 32.8697 42.3958 1.63078 -1.2697 2.66199 -1.2055 
2087 1 183.84 31.0939 43.857 0.0917417 1.17225 1.84772 0.358547 
2089 1 183.84 34.3174 44.059 3.13024 -3.023 -0.597317 2.87923 
2322 1 183.84 32.696 45.5344 1.64744 -1.62167 0.669922 -1.96017 
2326 1 183.84 35.9454 45.8009 1.52071 3.07446 0.993279 1.06504 
2090 1 183.84 36.1055 42.398 1.51971 -1.68117 2.90937 1.90779 
2092 1 183.84 39.1949 42.4034 1.6542 -2.18866 -1.80587 0.251106 
2093 1 183.84 37.5513 44.077 0.0298188 2.14242 1.3232 4.82336 
2096 1 183.84 40.7472 43.8168 0.119431 -0.755609 -2.71987 1.08189 
2328 1 183.84 39.1027 45.5383 1.72367 -0.0565808 -3.27299 3.38903 
2294 1 183.84 0.738194 48.519 1.35101 2.15813 0.928638 -0.699252 
2296 1 183.84 2.23269 46.842 3.0582 5.02096 2.95777 -1.8407 
2297 1 183.84 3.96542 48.458 1.40154 2.88395 -0.802349 0.150446 
2532 1 183.84 2.41326 50.1602 3.12575 -0.568785 -7.65934 -2.99204 
2299 1 183.84 5.5971 46.7617 3.15086 -3.69208 -0.499595 0.0775798 
2300 1 183.84 7.20669 48.3645 1.51787 -4.9373 2.50653 -0.272828 
2301 1 183.84 8.8268 46.8183 2.95558 -2.59494 -1.82176 -2.87994 
2535 1 183.84 5.70945 49.8865 3.06657 0.241326 1.21656 2.19259 
2538 1 183.84 8.8469 50.2641 3.01304 5.03008 0.624199 -0.477042 
2536 1 183.84 7.17719 51.5763 1.54076 1.8381 -0.346535 0.217062 
2303 1 183.84 10.428 48.5532 1.46462 -0.642159 -0.600832 2.95241 
2305 1 183.84 12.042 46.947 3.09291 2.85528 4.44113 2.06459 
2306 1 183.84 13.4992 48.5088 1.40388 2.24146 -0.687824 -0.670557 
2541 1 183.84 11.972 50.1944 2.95569 4.2879 1.243 1.82164 
2308 1 183.84 15.2438 46.9819 3.03622 0.453757 1.92825 2.69073 
2544 1 183.84 15.0334 50.1977 3.08431 3.54209 4.84939 -3.4339 
2309 1 183.84 16.6582 48.6061 1.52145 -1.47297 -2.16766 -0.490874 
2310 1 183.84 18.3702 47.0279 0.0733313 0.875881 -0.65898 -1.30766 
2312 1 183.84 19.8908 48.4297 1.43152 1.38691 0.486099 0.811827 
2547 1 183.84 18.2755 50.1634 3.13369 2.88677 -2.1661 -2.17682 
2549 1 183.84 19.9483 51.6206 1.54492 -2.30104 -0.0982328 -1.96661 
2314 1 183.84 21.6057 46.9971 3.02965 -1.10628 -1.11385 0.392196 
2315 1 183.84 23.205 48.459 1.39458 -0.123193 -0.912633 0.324223 
2317 1 183.84 24.7871 46.8778 2.92127 -1.69145 -1.8614 1.08469 
2550 1 183.84 21.5066 50.0306 3.08445 -0.324702 0.808318 0.729886 
2553 1 183.84 24.6554 50.2148 2.96106 1.33482 1.03889 1.59961 
2318 1 183.84 26.3623 48.6808 1.58292 -1.68173 1.82055 -3.16341 
2319 1 183.84 27.8292 46.9696 3.16824 -2.85408 -1.23254 2.16811 
2321 1 183.84 29.5291 48.6116 1.57632 -2.64699 -3.27086 -3.86162 
2556 1 183.84 27.9054 50.2722 3.03763 1.5617 -4.48924 -3.09393 
2323 1 183.84 31.1225 46.8252 0.117074 0.461156 -0.433183 1.06389 
2324 1 183.84 32.4886 48.5742 1.60592 1.04616 -2.90994 -0.649675 
2325 1 183.84 34.3847 47.211 3.15147 0.29918 -1.41121 5.18116 
2559 1 183.84 30.9869 50.121 -0.00324141 2.09105 0.613426 0.936219 
2562 1 183.84 34.1217 50.2839 2.86331 0.918623 0.579189 2.90703 
2327 1 183.84 35.9775 48.7937 1.36099 1.67341 0.304846 1.84387 
2329 1 183.84 37.5349 47.1693 0.0225116 -2.24297 1.25785 -4.09746 
2330 1 183.84 39.2418 48.8178 1.50528 1.41054 -1.20285 -2.58713 
2332 1 183.84 40.7266 47.2112 3.17269 3.14484 -0.67838 2.53907 
2565 1 183.84 37.5413 50.21 2.92786 1.89165 -0.050344 2.41062 
2568 1 183.84 40.8009 50.4131 0.0295863 1.24299 -1.4498 -3.3724 
2530 1 183.84 1.01239 51.7154 1.39422 -4.4777 -4.04359 2.10101 
2533 1 183.84 4.13248 51.7034 1.41191 -0.0601544 0.851221 -1.90149 
2534 1 183.84 2.52343 53.2549 2.66075 5.44381 0.445655 1.47322 
2766 1 183.84 0.856326 54.6004 1.35559 2.58282 2.22068 -0.537687 
2769 1 183.84 4.2524 54.7653 1.32916 0.881728 -0.285021 -3.27298 
2770 1 183.84 2.31621 56.4147 3.01075 1.31229 -0.233328 -0.399519 
2767 1 183.84 -0.620276 56.5048 2.95982 2.10141 -0.352409 1.74852 
2531 1 183.84 -0.652076 53.2794 3.08239 2.42144 -1.38984 -1.09824 
2537 1 183.84 5.78744 53.1861 3.04473 -7.49828 -1.71055 1.30501 
2539 1 183.84 8.808 53.3784 2.94579 1.54236 0.594785 0.185228 
2772 1 183.84 7.29717 54.9106 1.60402 4.46121 -1.28488 -1.522 
2773 1 183.84 5.46818 56.538 2.96603 2.17382 -1.62053 -3.12227 
2775 1 183.84 8.63368 56.6017 2.98093 0.963549 1.42391 2.21711 
2540 1 183.84 10.3967 51.8398 1.28117 3.43699 -0.941355 1.40577 
2542 1 183.84 13.4716 51.7267 1.37763 1.13858 3.13757 -3.3216 
2543 1 183.84 12.1221 53.427 2.89413 0.986928 -0.00747667 0.209536 
2776 1 183.84 10.378 55.1066 1.29384 2.65482 0.709793 3.03426 
2778 1 183.84 13.4929 55.1133 1.35439 -3.46386 0.996302 -3.28482 
2779 1 183.84 12.0943 56.7212 2.85769 0.603019 0.88225 1.25544 
2546 1 183.84 15.0808 53.2263 2.96309 -2.43793 3.838 1.04862 
2545 1 183.84 16.6912 51.7334 1.4216 2.42692 1.12132 -3.82118 
2548 1 183.84 18.4808 53.2599 3.09878 1.61804 -2.8469 0.600936 
2781 1 183.84 16.7187 54.9507 1.45779 3.43346 -0.154718 -0.599047 
2785 1 183.84 19.9263 54.8982 1.54977 -1.13578 1.40991 -1.09178 
2782 1 183.84 15.2673 56.4507 3.01064 -0.153389 -0.00305843 -5.54459 
2784 1 183.84 18.3596 56.4826 3.00841 4.72729 -0.604745 4.27426 
2551 1 183.84 23.1361 51.8048 1.31118 -3.85781 -0.993967 -1.99951 
2552 1 183.84 21.5491 53.2331 2.96428 0.101851 0.332533 2.50338 